TITLE = "3D Mesh"
VARIABLES = "X", "Y", "Z"
ZONE I=281, J=183, K=1, DATAPACKING=POINT
0.0000000000e+000 0.0000000000e+000 0.0000000000e+000
7.9200000000e-004 0.0000000000e+000 6.7584442383e-003
3.1360000000e-003 0.0000000000e+000 1.7234074746e-002
6.9840000000e-003 0.0000000000e+000 2.4180059263e-002
1.2288000000e-002 0.0000000000e+000 3.1990894168e-002
1.9000000000e-002 0.0000000000e+000 3.9430747150e-002
2.7072000000e-002 0.0000000000e+000 4.7187962721e-002
3.6456000000e-002 0.0000000000e+000 5.5665331335e-002
4.7104000000e-002 0.0000000000e+000 6.5284578108e-002
5.8968000000e-002 0.0000000000e+000 7.5975311163e-002
7.2000000000e-002 0.0000000000e+000 8.7574331383e-002
8.6152000000e-002 0.0000000000e+000 1.0008825893e-001
1.0137600000e-001 0.0000000000e+000 1.1342312407e-001
1.1762400000e-001 0.0000000000e+000 1.2722735938e-001
1.3484800000e-001 0.0000000000e+000 1.4172749091e-001
1.5300000000e-001 0.0000000000e+000 1.5644763028e-001
1.7203200000e-001 0.0000000000e+000 1.7155275624e-001
1.9189600000e-001 0.0000000000e+000 1.8711097811e-001
2.1254400000e-001 0.0000000000e+000 2.0290138753e-001
2.3392800000e-001 0.0000000000e+000 2.1902284940e-001
2.5600000000e-001 0.0000000000e+000 2.3487974718e-001
2.7871200000e-001 0.0000000000e+000 2.5073852879e-001
3.0201600000e-001 0.0000000000e+000 2.6646291414e-001
3.2586400000e-001 0.0000000000e+000 2.8228069676e-001
3.5020800000e-001 0.0000000000e+000 2.9769990633e-001
3.7500000000e-001 0.0000000000e+000 3.1270141097e-001
4.0019200000e-001 0.0000000000e+000 3.2749662800e-001
4.2573600000e-001 0.0000000000e+000 3.4182605491e-001
4.5158400000e-001 0.0000000000e+000 3.5570574808e-001
4.7768800000e-001 0.0000000000e+000 3.6931673153e-001
5.0400000000e-001 0.0000000000e+000 3.8180715080e-001
5.3047200000e-001 0.0000000000e+000 3.9411300364e-001
5.5705600000e-001 0.0000000000e+000 4.0597420697e-001
5.8370400000e-001 0.0000000000e+000 4.1651899288e-001
6.1036800000e-001 0.0000000000e+000 4.2691204390e-001
6.3700000000e-001 0.0000000000e+000 4.3667428929e-001
6.6355200000e-001 0.0000000000e+000 4.4532419468e-001
6.8997600000e-001 0.0000000000e+000 4.5365347641e-001
7.1622400000e-001 0.0000000000e+000 4.6105783359e-001
7.4224800000e-001 0.0000000000e+000 4.6769507035e-001
7.6800000000e-001 0.0000000000e+000 4.7390716506e-001
7.9343200000e-001 0.0000000000e+000 4.7909221649e-001
8.1849600000e-001 0.0000000000e+000 4.8383425210e-001
8.4314400000e-001 0.0000000000e+000 4.8801431473e-001
8.6732800000e-001 0.0000000000e+000 4.9115050674e-001
8.9100000000e-001 0.0000000000e+000 4.9394494163e-001
9.1411200000e-001 0.0000000000e+000 4.9615157627e-001
9.3661600000e-001 0.0000000000e+000 4.9781859568e-001
9.5846400000e-001 0.0000000000e+000 4.9855820293e-001
9.7960800000e-001 0.0000000000e+000 4.9929215317e-001
1.0000000000e+000 0.0000000000e+000 5.0000000000e-001
1.0216980685e+000 0.0000000000e+000 5.0000037889e-001
1.0467376093e+000 0.0000000000e+000 5.0000037889e-001
1.0750366254e+000 0.0000000000e+000 5.0000037889e-001
1.1065131195e+000 0.0000000000e+000 5.0000037889e-001
1.1410850948e+000 0.0000000000e+000 5.0000037889e-001
1.1786705539e+000 0.0000000000e+000 5.0000037889e-001
1.2191875000e+000 0.0000000000e+000 5.0000037889e-001
1.2625539359e+000 0.0000000000e+000 5.0000037889e-001
1.3086878644e+000 0.0000000000e+000 5.0000037889e-001
1.3575072886e+000 0.0000000000e+000 5.0000037889e-001
1.4089302114e+000 0.0000000000e+000 5.0000037889e-001
1.4628746356e+000 0.0000000000e+000 5.0000037889e-001
1.5192585641e+000 0.0000000000e+000 5.0000037889e-001
1.5780000000e+000 0.0000000000e+000 5.0000037889e-001
1.6390169461e+000 0.0000000000e+000 5.0000037889e-001
1.7022274052e+000 0.0000000000e+000 5.0000037889e-001
1.7675493805e+000 0.0000000000e+000 5.0000037889e-001
1.8349008746e+000 0.0000000000e+000 5.0000037889e-001
1.9041998907e+000 0.0000000000e+000 5.0000037889e-001
1.9753644315e+000 0.0000000000e+000 5.0000037889e-001
2.0483125000e+000 0.0000000000e+000 5.0000037889e-001
2.1229620991e+000 0.0000000000e+000 5.0000037889e-001
2.1992312318e+000 0.0000000000e+000 5.0000037889e-001
2.2770379009e+000 0.0000000000e+000 5.0000037889e-001
2.3563001093e+000 0.0000000000e+000 5.0000037889e-001
2.4369358601e+000 0.0000000000e+000 5.0000037889e-001
2.5188631560e+000 0.0000000000e+000 5.0000037889e-001
2.6020000000e+000 0.0000000000e+000 5.0000037889e-001
2.6862643950e+000 0.0000000000e+000 5.0000037889e-001
2.7715743440e+000 0.0000000000e+000 5.0000037889e-001
2.8578478499e+000 0.0000000000e+000 5.0000037889e-001
2.9450029155e+000 0.0000000000e+000 5.0000037889e-001
3.0329575437e+000 0.0000000000e+000 5.0000037889e-001
3.1216297376e+000 0.0000000000e+000 5.0000037889e-001
3.2109375000e+000 0.0000000000e+000 5.0000037889e-001
3.3007988338e+000 0.0000000000e+000 5.0000037889e-001
3.3911317420e+000 0.0000000000e+000 5.0000037889e-001
3.4818542274e+000 0.0000000000e+000 5.0000037889e-001
3.5728842930e+000 0.0000000000e+000 5.0000037889e-001
3.6641399417e+000 0.0000000000e+000 5.0000037889e-001
3.7555391764e+000 0.0000000000e+000 5.0000037889e-001
3.8470000000e+000 0.0000000000e+000 5.0000037889e-001
3.9384404155e+000 0.0000000000e+000 5.0000037889e-001
4.0297784257e+000 0.0000000000e+000 5.0000037889e-001
4.1209320335e+000 0.0000000000e+000 5.0000037889e-001
4.2118192420e+000 0.0000000000e+000 5.0000037889e-001
4.3023580539e+000 0.0000000000e+000 5.0000037889e-001
4.3924664723e+000 0.0000000000e+000 5.0000037889e-001
4.4820625000e+000 0.0000000000e+000 5.0000037889e-001
4.5710641399e+000 0.0000000000e+000 5.0000037889e-001
4.6593893950e+000 0.0000000000e+000 5.0000037889e-001
4.7469562682e+000 0.0000000000e+000 5.0000037889e-001
4.8336827624e+000 0.0000000000e+000 5.0000037889e-001
4.9194868805e+000 0.0000000000e+000 5.0000037889e-001
5.0042866254e+000 0.0000000000e+000 5.0000037889e-001
5.0880000000e+000 0.0000000000e+000 5.0000037889e-001
5.1705450073e+000 0.0000000000e+000 5.0000037889e-001
5.2518396501e+000 0.0000000000e+000 5.0000037889e-001
5.3318019315e+000 0.0000000000e+000 5.0000037889e-001
5.4103498542e+000 0.0000000000e+000 5.0000037889e-001
5.4874014213e+000 0.0000000000e+000 5.0000037889e-001
5.5628746356e+000 0.0000000000e+000 5.0000037889e-001
5.6366875000e+000 0.0000000000e+000 5.0000037889e-001
5.7087580175e+000 0.0000000000e+000 5.0000037889e-001
5.7790041910e+000 0.0000000000e+000 5.0000037889e-001
5.8473440233e+000 0.0000000000e+000 5.0000037889e-001
5.9136955175e+000 0.0000000000e+000 5.0000037889e-001
5.9779766764e+000 0.0000000000e+000 5.0000037889e-001
6.0401055029e+000 0.0000000000e+000 5.0000037889e-001
6.1000000000e+000 0.0000000000e+000 5.0000037889e-001
6.1592206055e+000 0.0000000000e+000 5.0000037889e-001
6.2193585937e+000 0.0000000000e+000 5.0000037889e-001
6.2803782227e+000 0.0000000000e+000 5.0000037889e-001
6.3422437500e+000 0.0000000000e+000 5.0000037889e-001
6.4049194336e+000 0.0000000000e+000 5.0000037889e-001
6.4683695312e+000 0.0000000000e+000 5.0000037889e-001
6.5325583008e+000 0.0000000000e+000 5.0000037889e-001
6.5974500000e+000 0.0000000000e+000 5.0000037889e-001
6.6630088867e+000 0.0000000000e+000 5.0000037889e-001
6.7291992187e+000 0.0000000000e+000 5.0000037889e-001
6.7959852539e+000 0.0000000000e+000 5.0000037889e-001
6.8633312500e+000 0.0000000000e+000 5.0000037889e-001
6.9312014648e+000 0.0000000000e+000 5.0000037889e-001
6.9995601563e+000 0.0000000000e+000 5.0000037889e-001
7.0683715820e+000 0.0000000000e+000 5.0000037889e-001
7.1376000000e+000 0.0000000000e+000 5.0000037889e-001
7.2072096680e+000 0.0000000000e+000 5.0000037889e-001
7.2771648438e+000 0.0000000000e+000 5.0000037889e-001
7.3474297852e+000 0.0000000000e+000 5.0000037889e-001
7.4179687500e+000 0.0000000000e+000 5.0000037889e-001
7.4887459961e+000 0.0000000000e+000 5.0000037889e-001
7.5597257812e+000 0.0000000000e+000 5.0000037889e-001
7.6308723633e+000 0.0000000000e+000 5.0000037889e-001
7.7021500000e+000 0.0000000000e+000 5.0000037889e-001
7.7735229492e+000 0.0000000000e+000 5.0000037889e-001
7.8449554687e+000 0.0000000000e+000 5.0000037889e-001
7.9164118164e+000 0.0000000000e+000 5.0000037889e-001
7.9878562500e+000 0.0000000000e+000 5.0000037889e-001
8.0592530273e+000 0.0000000000e+000 5.0000037889e-001
8.1305664063e+000 0.0000000000e+000 5.0000037889e-001
8.2017606445e+000 0.0000000000e+000 5.0000037889e-001
8.2728000000e+000 0.0000000000e+000 5.0000037889e-001
8.3436487305e+000 0.0000000000e+000 5.0000037889e-001
8.4142710938e+000 0.0000000000e+000 5.0000037889e-001
8.4846313477e+000 0.0000000000e+000 5.0000037889e-001
8.5546937500e+000 0.0000000000e+000 5.0000037889e-001
8.6244225586e+000 0.0000000000e+000 5.0000037889e-001
8.6937820313e+000 0.0000000000e+000 5.0000037889e-001
8.7627364258e+000 0.0000000000e+000 5.0000037889e-001
8.8312500000e+000 0.0000000000e+000 5.0000037889e-001
8.8992870117e+000 0.0000000000e+000 5.0000037889e-001
8.9668117187e+000 0.0000000000e+000 5.0000037889e-001
9.0337883789e+000 0.0000000000e+000 5.0000037889e-001
9.1001812500e+000 0.0000000000e+000 5.0000037889e-001
9.1659545898e+000 0.0000000000e+000 5.0000037889e-001
9.2310726562e+000 0.0000000000e+000 5.0000037889e-001
9.2954997070e+000 0.0000000000e+000 5.0000037889e-001
9.3592000000e+000 0.0000000000e+000 5.0000037889e-001
9.4221377930e+000 0.0000000000e+000 5.0000037889e-001
9.4842773437e+000 0.0000000000e+000 5.0000037889e-001
9.5455829102e+000 0.0000000000e+000 5.0000037889e-001
9.6060187500e+000 0.0000000000e+000 5.0000037889e-001
9.6655491211e+000 0.0000000000e+000 5.0000037889e-001
9.7241382813e+000 0.0000000000e+000 5.0000037889e-001
9.7817504883e+000 0.0000000000e+000 5.0000037889e-001
9.8383500000e+000 0.0000000000e+000 5.0000037889e-001
9.8939010742e+000 0.0000000000e+000 5.0000037889e-001
9.9483679688e+000 0.0000000000e+000 5.0000037889e-001
1.0001714941e+001 0.0000000000e+000 5.0000037889e-001
1.0053906250e+001 0.0000000000e+000 5.0000037889e-001
1.0104906152e+001 0.0000000000e+000 5.0000037889e-001
1.0154678906e+001 0.0000000000e+000 5.0000037889e-001
1.0203188770e+001 0.0000000000e+000 5.0000037889e-001
1.0250400000e+001 0.0000000000e+000 5.0000037889e-001
1.0296276855e+001 0.0000000000e+000 5.0000037889e-001
1.0340783594e+001 0.0000000000e+000 5.0000037889e-001
1.0383884473e+001 0.0000000000e+000 5.0000037889e-001
1.0425543750e+001 0.0000000000e+000 5.0000037889e-001
1.0465725684e+001 0.0000000000e+000 5.0000037889e-001
1.0504394531e+001 0.0000000000e+000 5.0000037889e-001
1.0541514551e+001 0.0000000000e+000 5.0000037889e-001
1.0577050000e+001 0.0000000000e+000 5.0000037889e-001
1.0610965137e+001 0.0000000000e+000 5.0000037889e-001
1.0643224219e+001 0.0000000000e+000 5.0000037889e-001
1.0673791504e+001 0.0000000000e+000 5.0000037889e-001
1.0702631250e+001 0.0000000000e+000 5.0000037889e-001
1.0729707715e+001 0.0000000000e+000 5.0000037889e-001
1.0754985156e+001 0.0000000000e+000 5.0000037889e-001
1.0778427832e+001 0.0000000000e+000 5.0000037889e-001
1.0800000000e+001 0.0000000000e+000 5.0000037889e-001
1.0839175044e+001 -8.3981294507e-005 4.9999622875e-001
1.0878084110e+001 -1.1323431174e-004 4.9999491512e-001
1.0916492894e+001 -9.5969245542e-005 4.9999569042e-001
1.0954029462e+001 -1.4665750640e-004 4.9999341423e-001
1.0990427819e+001 -3.1894120928e-004 4.9998567769e-001
1.1025713129e+001 -5.1428339886e-004 4.9997690570e-001
1.1060065989e+001 -6.5682891799e-004 4.9997050458e-001
1.1093619343e+001 -7.4700106678e-004 4.9996645532e-001
1.1126412562e+001 -8.2522723442e-004 4.9996294252e-001
1.1158386454e+001 -9.3070119858e-004 4.9995820612e-001
1.1189443788e+001 -1.0824653093e-003 4.9995139082e-001
1.1219525438e+001 -1.2852820254e-003 4.9994228248e-001
1.1248643272e+001 -1.5406187969e-003 4.9993081538e-001
1.1276856744e+001 -1.8486253838e-003 4.9991698279e-001
1.1304232434e+001 -2.2015430960e-003 4.9990113315e-001
1.1330821760e+001 -2.5840854325e-003 4.9988395303e-001
1.1356659316e+001 -2.9713547956e-003 4.9986656059e-001
1.1381771679e+001 -3.3285508145e-003 4.9985051878e-001
1.1406185963e+001 -3.6135860030e-003 4.9983771781e-001
1.1429933584e+001 -3.7871648736e-003 4.9982992135e-001
1.1453049039e+001 -3.8319274296e-003 4.9982790756e-001
1.1475566926e+001 -3.7710117367e-003 4.9983064179e-001
1.1497519567e+001 -3.6766025880e-003 4.9983488090e-001
1.1518935638e+001 -3.6595391254e-003 4.9983564505e-001
1.1539843455e+001 -3.8476513268e-003 4.9982719104e-001
1.1560275036e+001 -4.3359088613e-003 4.9980525203e-001
1.1580263180e+001 -5.1520618125e-003 4.9976859762e-001
1.1599841518e+001 -6.2515525432e-003 4.9971923592e-001
1.1619044075e+001 -7.5273174890e-003 4.9966196022e-001
1.1637904707e+001 -8.8360146457e-003 4.9960318642e-001
1.1656456828e+001 -1.0031648772e-002 4.9954948356e-001
1.1674731819e+001 -1.1001305851e-002 4.9950593074e-001
1.1692758082e+001 -1.1692968873e-002 4.9947486437e-001
1.1710561759e+001 -1.2120634539e-002 4.9945565577e-001
1.1728163995e+001 -1.2343216423e-002 4.9944565876e-001
1.1745582043e+001 -1.2474796057e-002 4.9943974923e-001
1.1762832863e+001 -1.2666249456e-002 4.9943115039e-001
1.1779932143e+001 -1.3049812920e-002 4.9941392049e-001
1.1796894160e+001 -1.3702677862e-002 4.9938459377e-001
1.1813731036e+001 -1.4630452644e-002 4.9934291868e-001
1.1830452131e+001 -1.5771622763e-002 4.9929165833e-001
1.1847063702e+001 -1.7016946412e-002 4.9923572678e-001
1.1863569393e+001 -1.8240889991e-002 4.9918075927e-001
1.1879971534e+001 -1.9344427010e-002 4.9913119936e-001
1.1896270905e+001 -2.0302380728e-002 4.9908817777e-001
1.1912468943e+001 -2.1091179101e-002 4.9905275315e-001
1.1928571037e+001 -2.1693826457e-002 4.9902568879e-001
1.1944584980e+001 -2.2113710871e-002 4.9900683254e-001
1.1960520562e+001 -2.2370976651e-002 4.9899527969e-001
1.1976387213e+001 -2.2498917707e-002 4.9898953497e-001
1.1992192502e+001 -2.2545534804e-002 4.9898744260e-001
1.2007940698e+001 -2.2569081733e-002 4.9898638633e-001
1.2023633205e+001 -2.2631924726e-002 4.9898356523e-001
1.2039269658e+001 -2.2786821317e-002 4.9897660988e-001
1.2054849994e+001 -2.3066693000e-002 4.9896404174e-001
1.2070376177e+001 -2.3477877248e-002 4.9894557619e-001
1.2085853428e+001 -2.4000253951e-002 4.9892211684e-001
1.2101290256e+001 -2.4591394306e-002 4.9889556922e-001
1.2116697611e+001 -2.5194569895e-002 4.9886848109e-001
1.2132087452e+001 -2.5748226114e-002 4.9884361693e-001
1.2147471474e+001 -2.6195685270e-002 4.9882352221e-001
1.2162860251e+001 -2.6493555974e-002 4.9881014569e-001
1.2178262919e+001 -2.6616620303e-002 4.9880461995e-001
1.2193687029e+001 -2.6557495674e-002 4.9880727655e-001
1.2209138336e+001 -2.6319479395e-002 4.9881796739e-001
1.2224620405e+001 -2.5904490609e-002 4.9883660629e-001
1.2240134420e+001 -2.5299831622e-002 4.9886376352e-001
1.2255679731e+001 -2.4471077417e-002 4.9890098515e-001
1.2271255850e+001 -2.3366583606e-002 4.9895059058e-001
1.2286865840e+001 -2.1934444988e-002 4.9901491096e-001
1.2302520945e+001 -2.0152041123e-002 4.9909496219e-001
1.2318243837e+001 -1.8049747122e-002 4.9918938009e-001
1.2334069114e+001 -1.5701167173e-002 4.9929485900e-001
1.2350038366e+001 -1.3194643430e-002 4.9940743138e-001
1.2366193486e+001 -1.0635754211e-002 4.9952235558e-001
1.2382565827e+001 -8.1452034812e-003 4.9963421062e-001
1.2399164735e+001 -5.8050148161e-003 4.9973931274e-001
1.2415971561e+001 -3.6568768555e-003 4.9983578963e-001
1.2432939630e+001 -1.7171226335e-003 4.9992290776e-001
1.2450000000e+001 1.1053960000e-016 5.0000000000e-001
0.0000000000e+000 0.0000000000e+000 0.0000000000e+000
7.9200000000e-004 2.3327540055e-004 6.7544171555e-003
3.1360000000e-003 5.9485371894e-004 1.7223805659e-002
6.9840000000e-003 8.3460228582e-004 2.4165651346e-002
1.2288000000e-002 1.1042021489e-003 3.1971832091e-002
1.9000000000e-002 1.3609971483e-003 3.9407251967e-002
2.7072000000e-002 1.6287462790e-003 4.7159845327e-002
3.6456000000e-002 1.9213523121e-003 5.5632162621e-002
4.7104000000e-002 2.2533715705e-003 6.5245677675e-002
5.8968000000e-002 2.6223743984e-003 7.5930040556e-002
7.2000000000e-002 3.0227277922e-003 8.7522149390e-002
8.6152000000e-002 3.4546602544e-003 1.0002862039e-001
1.0137600000e-001 3.9149283129e-003 1.1335553983e-001
1.1762400000e-001 4.3913972170e-003 1.2715154975e-001
1.3484800000e-001 4.8918857720e-003 1.4164304124e-001
1.5300000000e-001 5.3999681484e-003 1.5635440949e-001
1.7203200000e-001 5.9213387750e-003 1.7145053491e-001
1.9189600000e-001 6.4583485232e-003 1.8699948627e-001
2.1254400000e-001 7.0033724891e-003 2.0278048682e-001
2.3392800000e-001 7.5598231074e-003 2.1889234257e-001
2.5600000000e-001 8.1071419947e-003 2.3473979186e-001
2.7871200000e-001 8.6545259047e-003 2.5058912387e-001
3.0201600000e-001 9.1972709748e-003 2.6630413970e-001
3.2586400000e-001 9.7432397579e-003 2.8211249714e-001
3.5020800000e-001 1.0275451338e-002 2.9752251903e-001
3.7500000000e-001 1.0793245357e-002 3.1251508488e-001
4.0019200000e-001 1.1303919124e-002 3.2730148604e-001
4.2573600000e-001 1.1798515615e-002 3.4162237463e-001
4.5158400000e-001 1.2277589033e-002 3.5549379745e-001
4.7768800000e-001 1.2747387629e-002 3.6909667067e-001
5.0400000000e-001 1.3178508677e-002 3.8157964740e-001
5.3047200000e-001 1.3603259203e-002 3.9387816768e-001
5.5705600000e-001 1.4012662146e-002 4.0573230340e-001
5.8370400000e-001 1.4376627442e-002 4.1627080610e-001
6.1036800000e-001 1.4735355435e-002 4.2665766433e-001
6.3700000000e-001 1.5072310454e-002 4.3641409279e-001
6.6355200000e-001 1.5370871790e-002 4.4505884405e-001
6.8997600000e-001 1.5658366436e-002 4.5338316270e-001
7.1622400000e-001 1.5913936257e-002 4.6078310793e-001
7.4224800000e-001 1.6143028044e-002 4.6741638983e-001
7.6800000000e-001 1.6357445568e-002 4.7362478300e-001
7.9343200000e-001 1.6536413524e-002 4.7880674487e-001
8.1849600000e-001 1.6700090284e-002 4.8354595489e-001
8.4314400000e-001 1.6844369906e-002 4.8772352679e-001
8.6732800000e-001 1.6952619146e-002 4.9085785007e-001
8.9100000000e-001 1.7049072249e-002 4.9365061987e-001
9.1411200000e-001 1.7125236756e-002 4.9585593966e-001
9.3661600000e-001 1.7182775830e-002 4.9752196577e-001
9.5846400000e-001 1.7208304217e-002 4.9826113231e-001
9.7960800000e-001 1.7233637345e-002 4.9899464522e-001
1.0000000000e+000 1.7258069485e-002 4.9970207028e-001
1.0216980685e+000 1.7258082563e-002 4.9970244894e-001
1.0467376093e+000 1.7258082563e-002 4.9970244894e-001
1.0750366254e+000 1.7258082563e-002 4.9970244894e-001
1.1065131195e+000 1.7258082563e-002 4.9970244894e-001
1.1410850948e+000 1.7258082563e-002 4.9970244894e-001
1.1786705539e+000 1.7258082563e-002 4.9970244894e-001
1.2191875000e+000 1.7258082563e-002 4.9970244894e-001
1.2625539359e+000 1.7258082563e-002 4.9970244894e-001
1.3086878644e+000 1.7258082563e-002 4.9970244894e-001
1.3575072886e+000 1.7258082563e-002 4.9970244894e-001
1.4089302114e+000 1.7258082563e-002 4.9970244894e-001
1.4628746356e+000 1.7258082563e-002 4.9970244894e-001
1.5192585641e+000 1.7258082563e-002 4.9970244894e-001
1.5780000000e+000 1.7258082563e-002 4.9970244894e-001
1.6390169461e+000 1.7258082563e-002 4.9970244894e-001
1.7022274052e+000 1.7258082563e-002 4.9970244894e-001
1.7675493805e+000 1.7258082563e-002 4.9970244894e-001
1.8349008746e+000 1.7258082563e-002 4.9970244894e-001
1.9041998907e+000 1.7258082563e-002 4.9970244894e-001
1.9753644315e+000 1.7258082563e-002 4.9970244894e-001
2.0483125000e+000 1.7258082563e-002 4.9970244894e-001
2.1229620991e+000 1.7258082563e-002 4.9970244894e-001
2.1992312318e+000 1.7258082563e-002 4.9970244894e-001
2.2770379009e+000 1.7258082563e-002 4.9970244894e-001
2.3563001093e+000 1.7258082563e-002 4.9970244894e-001
2.4369358601e+000 1.7258082563e-002 4.9970244894e-001
2.5188631560e+000 1.7258082563e-002 4.9970244894e-001
2.6020000000e+000 1.7258082563e-002 4.9970244894e-001
2.6862643950e+000 1.7258082563e-002 4.9970244894e-001
2.7715743440e+000 1.7258082563e-002 4.9970244894e-001
2.8578478499e+000 1.7258082563e-002 4.9970244894e-001
2.9450029155e+000 1.7258082563e-002 4.9970244894e-001
3.0329575437e+000 1.7258082563e-002 4.9970244894e-001
3.1216297376e+000 1.7258082563e-002 4.9970244894e-001
3.2109375000e+000 1.7258082563e-002 4.9970244894e-001
3.3007988338e+000 1.7258082563e-002 4.9970244894e-001
3.3911317420e+000 1.7258082563e-002 4.9970244894e-001
3.4818542274e+000 1.7258082563e-002 4.9970244894e-001
3.5728842930e+000 1.7258082563e-002 4.9970244894e-001
3.6641399417e+000 1.7258082563e-002 4.9970244894e-001
3.7555391764e+000 1.7258082563e-002 4.9970244894e-001
3.8470000000e+000 1.7258082563e-002 4.9970244894e-001
3.9384404155e+000 1.7258082563e-002 4.9970244894e-001
4.0297784257e+000 1.7258082563e-002 4.9970244894e-001
4.1209320335e+000 1.7258082563e-002 4.9970244894e-001
4.2118192420e+000 1.7258082563e-002 4.9970244894e-001
4.3023580539e+000 1.7258082563e-002 4.9970244894e-001
4.3924664723e+000 1.7258082563e-002 4.9970244894e-001
4.4820625000e+000 1.7258082563e-002 4.9970244894e-001
4.5710641399e+000 1.7258082563e-002 4.9970244894e-001
4.6593893950e+000 1.7258082563e-002 4.9970244894e-001
4.7469562682e+000 1.7258082563e-002 4.9970244894e-001
4.8336827624e+000 1.7258082563e-002 4.9970244894e-001
4.9194868805e+000 1.7258082563e-002 4.9970244894e-001
5.0042866254e+000 1.7258082563e-002 4.9970244894e-001
5.0880000000e+000 1.7258082563e-002 4.9970244894e-001
5.1705450073e+000 1.7258082563e-002 4.9970244894e-001
5.2518396501e+000 1.7258082563e-002 4.9970244894e-001
5.3318019315e+000 1.7258082563e-002 4.9970244894e-001
5.4103498542e+000 1.7258082563e-002 4.9970244894e-001
5.4874014213e+000 1.7258082563e-002 4.9970244894e-001
5.5628746356e+000 1.7258082563e-002 4.9970244894e-001
5.6366875000e+000 1.7258082563e-002 4.9970244894e-001
5.7087580175e+000 1.7258082563e-002 4.9970244894e-001
5.7790041910e+000 1.7258082563e-002 4.9970244894e-001
5.8473440233e+000 1.7258082563e-002 4.9970244894e-001
5.9136955175e+000 1.7258082563e-002 4.9970244894e-001
5.9779766764e+000 1.7258082563e-002 4.9970244894e-001
6.0401055029e+000 1.7258082563e-002 4.9970244894e-001
6.1000000000e+000 1.7258082563e-002 4.9970244894e-001
6.1592206055e+000 1.7258082563e-002 4.9970244894e-001
6.2193585937e+000 1.7258082563e-002 4.9970244894e-001
6.2803782227e+000 1.7258082563e-002 4.9970244894e-001
6.3422437500e+000 1.7258082563e-002 4.9970244894e-001
6.4049194336e+000 1.7258082563e-002 4.9970244894e-001
6.4683695312e+000 1.7258082563e-002 4.9970244894e-001
6.5325583008e+000 1.7258082563e-002 4.9970244894e-001
6.5974500000e+000 1.7258082563e-002 4.9970244894e-001
6.6630088867e+000 1.7258082563e-002 4.9970244894e-001
6.7291992187e+000 1.7258082563e-002 4.9970244894e-001
6.7959852539e+000 1.7258082563e-002 4.9970244894e-001
6.8633312500e+000 1.7258082563e-002 4.9970244894e-001
6.9312014648e+000 1.7258082563e-002 4.9970244894e-001
6.9995601563e+000 1.7258082563e-002 4.9970244894e-001
7.0683715820e+000 1.7258082563e-002 4.9970244894e-001
7.1376000000e+000 1.7258082563e-002 4.9970244894e-001
7.2072096680e+000 1.7258082563e-002 4.9970244894e-001
7.2771648438e+000 1.7258082563e-002 4.9970244894e-001
7.3474297852e+000 1.7258082563e-002 4.9970244894e-001
7.4179687500e+000 1.7258082563e-002 4.9970244894e-001
7.4887459961e+000 1.7258082563e-002 4.9970244894e-001
7.5597257812e+000 1.7258082563e-002 4.9970244894e-001
7.6308723633e+000 1.7258082563e-002 4.9970244894e-001
7.7021500000e+000 1.7258082563e-002 4.9970244894e-001
7.7735229492e+000 1.7258082563e-002 4.9970244894e-001
7.8449554687e+000 1.7258082563e-002 4.9970244894e-001
7.9164118164e+000 1.7258082563e-002 4.9970244894e-001
7.9878562500e+000 1.7258082563e-002 4.9970244894e-001
8.0592530273e+000 1.7258082563e-002 4.9970244894e-001
8.1305664063e+000 1.7258082563e-002 4.9970244894e-001
8.2017606445e+000 1.7258082563e-002 4.9970244894e-001
8.2728000000e+000 1.7258082563e-002 4.9970244894e-001
8.3436487305e+000 1.7258082563e-002 4.9970244894e-001
8.4142710938e+000 1.7258082563e-002 4.9970244894e-001
8.4846313477e+000 1.7258082563e-002 4.9970244894e-001
8.5546937500e+000 1.7258082563e-002 4.9970244894e-001
8.6244225586e+000 1.7258082563e-002 4.9970244894e-001
8.6937820313e+000 1.7258082563e-002 4.9970244894e-001
8.7627364258e+000 1.7258082563e-002 4.9970244894e-001
8.8312500000e+000 1.7258082563e-002 4.9970244894e-001
8.8992870117e+000 1.7258082563e-002 4.9970244894e-001
8.9668117187e+000 1.7258082563e-002 4.9970244894e-001
9.0337883789e+000 1.7258082563e-002 4.9970244894e-001
9.1001812500e+000 1.7258082563e-002 4.9970244894e-001
9.1659545898e+000 1.7258082563e-002 4.9970244894e-001
9.2310726562e+000 1.7258082563e-002 4.9970244894e-001
9.2954997070e+000 1.7258082563e-002 4.9970244894e-001
9.3592000000e+000 1.7258082563e-002 4.9970244894e-001
9.4221377930e+000 1.7258082563e-002 4.9970244894e-001
9.4842773437e+000 1.7258082563e-002 4.9970244894e-001
9.5455829102e+000 1.7258082563e-002 4.9970244894e-001
9.6060187500e+000 1.7258082563e-002 4.9970244894e-001
9.6655491211e+000 1.7258082563e-002 4.9970244894e-001
9.7241382813e+000 1.7258082563e-002 4.9970244894e-001
9.7817504883e+000 1.7258082563e-002 4.9970244894e-001
9.8383500000e+000 1.7258082563e-002 4.9970244894e-001
9.8939010742e+000 1.7258082563e-002 4.9970244894e-001
9.9483679688e+000 1.7258082563e-002 4.9970244894e-001
1.0001714941e+001 1.7258082563e-002 4.9970244894e-001
1.0053906250e+001 1.7258082563e-002 4.9970244894e-001
1.0104906152e+001 1.7258082563e-002 4.9970244894e-001
1.0154678906e+001 1.7258082563e-002 4.9970244894e-001
1.0203188770e+001 1.7258082563e-002 4.9970244894e-001
1.0250400000e+001 1.7258082563e-002 4.9970244894e-001
1.0296276855e+001 1.7258082563e-002 4.9970244894e-001
1.0340783594e+001 1.7258082563e-002 4.9970244894e-001
1.0383884473e+001 1.7258082563e-002 4.9970244894e-001
1.0425543750e+001 1.7258082563e-002 4.9970244894e-001
1.0465725684e+001 1.7258082563e-002 4.9970244894e-001
1.0504394531e+001 1.7258082563e-002 4.9970244894e-001
1.0541514551e+001 1.7258082563e-002 4.9970244894e-001
1.0577050000e+001 1.7258082563e-002 4.9970244894e-001
1.0610965137e+001 1.7258082563e-002 4.9970244894e-001
1.0643224219e+001 1.7258082563e-002 4.9970244894e-001
1.0673791504e+001 1.7258082563e-002 4.9970244894e-001
1.0702631250e+001 1.7258082563e-002 4.9970244894e-001
1.0729707715e+001 1.7258082563e-002 4.9970244894e-001
1.0754985156e+001 1.7258082563e-002 4.9970244894e-001
1.0778427832e+001 1.7258082563e-002 4.9970244894e-001
1.0800000000e+001 1.7258082563e-002 4.9970244894e-001
1.0839131789e+001 1.7158149229e-002 4.9922942187e-001
1.0877996233e+001 1.7279993546e-002 4.9922394706e-001
1.0916371451e+001 1.7618302343e-002 4.9920875111e-001
1.0953877690e+001 1.8036956803e-002 4.9918994699e-001
1.0990240855e+001 1.8447786250e-002 4.9917149437e-001
1.1025496988e+001 1.8911055266e-002 4.9915068684e-001
1.1059827657e+001 1.9486001389e-002 4.9912486408e-001
1.1093358666e+001 2.0152921075e-002 4.9909491095e-001
1.1126122230e+001 2.0849035516e-002 4.9906364678e-001
1.1158068131e+001 2.1540944710e-002 4.9903257152e-001
1.1189107956e+001 2.2242053391e-002 4.9900108319e-001
1.1219179828e+001 2.2984728819e-002 4.9896772822e-001
1.1248292363e+001 2.3777485336e-002 4.9893212423e-001
1.1276502492e+001 2.4615005004e-002 4.9889451006e-001
1.1303875875e+001 2.5492807086e-002 4.9885508900e-001
1.1330464036e+001 2.6414946703e-002 4.9881367697e-001
1.1356302278e+001 2.7395964699e-002 4.9876962093e-001
1.1381417047e+001 2.8461265627e-002 4.9872178004e-001
1.1405834246e+001 2.9644047464e-002 4.9866866347e-001
1.1429583160e+001 3.0974291754e-002 4.9860892484e-001
1.1452695126e+001 3.2459941539e-002 4.9854220744e-001
1.1475201788e+001 3.4070361450e-002 4.9846988451e-001
1.1497134860e+001 3.5728225850e-002 4.9839543042e-001
1.1518527260e+001 3.7320533838e-002 4.9832392469e-001
1.1539414645e+001 3.8728157413e-002 4.9826070974e-001
1.1559834295e+001 3.9864025978e-002 4.9820970016e-001
1.1579821385e+001 4.0702595905e-002 4.9817204310e-001
1.1599406446e+001 4.1286345747e-002 4.9814582896e-001
1.1618616111e+001 4.1708882518e-002 4.9812641345e-001
1.1637478519e+001 4.2090223135e-002 4.9810887028e-001
1.1656022251e+001 4.2556454548e-002 4.9808739795e-001
1.1674279402e+001 4.3188061936e-002 4.9805827295e-001
1.1692287543e+001 4.4007994918e-002 4.9802047265e-001
1.1710087742e+001 4.5015170747e-002 4.9796463444e-001
1.1727710788e+001 4.6021136286e-002 4.9782829104e-001
1.1745186830e+001 4.6957153964e-002 4.9770140944e-001
1.1762537729e+001 4.7783938393e-002 4.9758929648e-001
1.1779776729e+001 4.8491928850e-002 4.9749327969e-001
1.1796908942e+001 4.9112546180e-002 4.9740912681e-001
1.1813933293e+001 4.9721333007e-002 4.9732657775e-001
1.1830843022e+001 5.0422904735e-002 4.9723146108e-001
1.1847627684e+001 5.1327509804e-002 4.9710884313e-001
1.1864275499e+001 5.2522678454e-002 4.9694686447e-001
1.1880775839e+001 5.4045885543e-002 4.9674044192e-001
1.1897122209e+001 5.5869156198e-002 4.9649337280e-001
1.1913314938e+001 5.7902952256e-002 4.9621778618e-001
1.1929362220e+001 6.0031199851e-002 4.9592941310e-001
1.1945279439e+001 6.2169629515e-002 4.9563966812e-001
1.1961086810e+001 6.4210557842e-002 4.9536313092e-001
1.1976807326e+001 6.6060411900e-002 4.9511247649e-001
1.1992460433e+001 6.7667632155e-002 4.9489468881e-001
1.2008059795e+001 6.9020033402e-002 4.9471141840e-001
1.2023612057e+001 7.0125996349e-002 4.9456152999e-001
1.2039119087e+001 7.1001618665e-002 4.9444284304e-001
1.2054580821e+001 7.1657043849e-002 4.9435398353e-001
1.2069998757e+001 7.2095869431e-002 4.9429446415e-001
1.2085377732e+001 7.2318314280e-002 4.9426425522e-001
1.2100726806e+001 7.2330485582e-002 4.9426252945e-001
1.2116058369e+001 7.2148730704e-002 4.9428707241e-001
1.2131386944e+001 7.1802759088e-002 4.9433385967e-001