TITLE = "2D Mesh" 
VARIABLES = "X", "Y", "Z", "F"
ZONE I=2 J=2 K=2 DATAPACKING=POINT 
0 0 0 21.25
0 0 1 10
0 1 0 52.25
0 1 1 60.75
1 0 0 10
1 0 1 46.25
1 1 0 75.0
1 1 1 100.0