TITLE = "2D Mesh" 
VARIABLES = "X", "Y", "Z", "F"
ZONE I=2 J=2 K=2 DATAPACKING=POINT 
0 0 0 0
0 0 1 3
0 1 0 3
0 1 1 1.1
1 0 0 3
1 0 1 0
1 1 0 2
1 1 1 4